<?xml version="1.0" encoding="UTF-8"?>

<!-- generated on 2025-06-25 00:13:22 by Eclipse SUMO sumo Version 1.22.0
<sumoConfiguration xmlns:xsi="http://www.w3.org/2001/XMLSchema-instance" xsi:noNamespaceSchemaLocation="http://sumo.dlr.de/xsd/sumoConfiguration.xsd">

    <input>
        <net-file value="/Users/nedasarbalavandeymir/Sumo/2025-06-25-00-12-39/osm.net.xml.gz"/>
        <route-files value="/Users/nedasarbalavandeymir/Sumo/2025-06-25-00-12-39/trips.trips.xml"/>
        <additional-files value="/Users/nedasarbalavandeymir/Sumo/2025-06-25-00-12-39/osm_stops.add.xml"/>
    </input>

    <output>
        <vehroute-output value="/Users/nedasarbalavandeymir/Sumo/2025-06-25-00-12-39/vehroutes.xml"/>
        <stop-output value="/Users/nedasarbalavandeymir/Sumo/2025-06-25-00-12-39/stopinfos.xml"/>
    </output>

    <time>
        <begin value="0.0"/>
    </time>

    <processing>
        <ignore-route-errors value="true"/>
    </processing>

    <routing>
        <device.rerouting.adaptation-interval value="0"/>
    </routing>

    <report>
        <aggregate-warnings value="5"/>
        <error-log value="/Users/nedasarbalavandeymir/Sumo/2025-06-25-00-12-39/trips.trips.xml.errorlog"/>
        <no-step-log value="true"/>
    </report>

</sumoConfiguration>
-->

<routes xmlns:xsi="http://www.w3.org/2001/XMLSchema-instance" xsi:noNamespaceSchemaLocation="http://sumo.dlr.de/xsd/routes_file.xsd">
    <vehicle id="0_bus_Green:0" type="pt_bus" depart="383.00" departLane="0" arrival="2086.00">
        <route edges="1149567881#0 406232664#0 406232647#1 406232647#2 406232641#0 599510795#0 599510795#3 604060313 604060314#0 604060314#1 604060314#2 604060314#4 604060314#5 -406234630#2 -243612604#3 -243612604#2 -243612604#1 -243612604#0 -4480316#1 406233346#0 406233346#1 334631993#1 406233344 640278675 192503244#0 192503244#2 192503244#3 405546351 405546352 405546350#0 1149567881#0 1149567881#1 405546357#2 405546357#3 405546357#4 405546357#5 405546357#6 525615994 525615993 405546353 405546349 405546354 405546355 405546348 405546356#0 405546356#1 405546356#2 405546356#3 405546347#0 334631554#0 604060294#0 1036500992 414764043 405544793#1 405544795#0 415101865#0 415101865#2 1029507042 406215608 406215604 406215675#0 406215675#1 406215647#0 406215694 1063171539 406215598 406215613#0 406216724#0 406216724#2 406215688 406215698#0 406215698#1 406215698#2 406215685#0 406215685#1 406215685#2 406215685#3 406215666#0 406215666#2 406215666#3 406215666#4 406215666#5 406215666#6 406215666#7 406215666#8 406215666#9 406215636#0 406215636#1 406215636#2 406215636#4 406215616#0 406215616#1 406215616#2 406215616#3 406215616#4 406215616#5 406215616#6 406215621#0 406215621#1 406215634#0 406215634#1 292716907 414764044#0 414764044#2 405545577#0 405545577#1 405545577#2 405545577#3 405545577#4 604060295#0 604060295#1 604060296#0 604060296#1 604060296#3 604060296#4 604060296#5 604060296#6 604060296#7 604060296#8 604060296#9 405545583#0 405545584#0 405545584#2 1014617514#0 1014617514#1 1014617514#2 405545580#0 405545580#1 604060292 604060288 24672357#0 24672357#1 405546357#2 405546357#3 405546357#4 405546357#5 405546357#6"/>
        <stop busStop="10694238030" duration="30.00"/>
        <stop busStop="10694238031" duration="30.00"/>
        <stop busStop="10694238032" duration="30.00"/>
        <stop busStop="10694238033" duration="30.00"/>
        <stop busStop="10694238034" duration="30.00"/>
        <stop busStop="4224888196" duration="30.00"/>
    </vehicle>

</routes>
