<?xml version="1.0" encoding="UTF-8"?>

<!-- generated on 2025-04-15 15:09:49 by Eclipse SUMO sumo Version 1.22.0
<sumoConfiguration xmlns:xsi="http://www.w3.org/2001/XMLSchema-instance" xsi:noNamespaceSchemaLocation="http://sumo.dlr.de/xsd/sumoConfiguration.xsd">

    <input>
        <net-file value="/Users/nedasarbalavandeymir/Sumo/2025-04-15-15-09-14/osm.net.xml.gz"/>
        <route-files value="/Users/nedasarbalavandeymir/Sumo/2025-04-15-15-09-14/trips.trips.xml"/>
        <additional-files value="/Users/nedasarbalavandeymir/Sumo/2025-04-15-15-09-14/osm_stops.add.xml"/>
    </input>

    <output>
        <vehroute-output value="/Users/nedasarbalavandeymir/Sumo/2025-04-15-15-09-14/vehroutes.xml"/>
        <stop-output value="/Users/nedasarbalavandeymir/Sumo/2025-04-15-15-09-14/stopinfos.xml"/>
    </output>

    <time>
        <begin value="0.0"/>
    </time>

    <processing>
        <ignore-route-errors value="true"/>
    </processing>

    <routing>
        <device.rerouting.adaptation-interval value="0"/>
    </routing>

    <report>
        <aggregate-warnings value="5"/>
        <error-log value="/Users/nedasarbalavandeymir/Sumo/2025-04-15-15-09-14/trips.trips.xml.errorlog"/>
        <no-step-log value="true"/>
    </report>

</sumoConfiguration>
-->

<routes xmlns:xsi="http://www.w3.org/2001/XMLSchema-instance" xsi:noNamespaceSchemaLocation="http://sumo.dlr.de/xsd/routes_file.xsd">
</routes>
