<?xml version="1.0" encoding="UTF-8"?>

<!-- generated on 2025-06-22 23:42:44 by Eclipse SUMO sumo Version 1.22.0
<sumoConfiguration xmlns:xsi="http://www.w3.org/2001/XMLSchema-instance" xsi:noNamespaceSchemaLocation="http://sumo.dlr.de/xsd/sumoConfiguration.xsd">

    <input>
        <net-file value="/Users/nedasarbalavandeymir/Sumo/2025-06-22-23-41-46/osm.net.xml.gz"/>
        <route-files value="/Users/nedasarbalavandeymir/Sumo/2025-06-22-23-41-46/trips.trips.xml"/>
        <additional-files value="/Users/nedasarbalavandeymir/Sumo/2025-06-22-23-41-46/osm_stops.add.xml"/>
    </input>

    <output>
        <vehroute-output value="/Users/nedasarbalavandeymir/Sumo/2025-06-22-23-41-46/vehroutes.xml"/>
        <stop-output value="/Users/nedasarbalavandeymir/Sumo/2025-06-22-23-41-46/stopinfos.xml"/>
    </output>

    <time>
        <begin value="0.0"/>
    </time>

    <processing>
        <ignore-route-errors value="true"/>
    </processing>

    <routing>
        <device.rerouting.adaptation-interval value="0"/>
    </routing>

    <report>
        <aggregate-warnings value="5"/>
        <error-log value="/Users/nedasarbalavandeymir/Sumo/2025-06-22-23-41-46/trips.trips.xml.errorlog"/>
        <no-step-log value="true"/>
    </report>

</sumoConfiguration>
-->

<routes xmlns:xsi="http://www.w3.org/2001/XMLSchema-instance" xsi:noNamespaceSchemaLocation="http://sumo.dlr.de/xsd/routes_file.xsd">
    <vehicle id="2_bus_J:2" type="pt_bus" depart="17.00" departLane="0" arrival="180.00">
        <route edges="39497550 604115940 448565811#0 24707236"/>
        <stop busStop="473127692" duration="30.00"/>
    </vehicle>

    <vehicle id="4_bus_76:0" type="pt_bus" depart="119.00" departLane="0" arrival="189.00">
        <route edges="608749309#1"/>
        <stop busStop="10962974172" duration="30.00"/>
    </vehicle>

    <vehicle id="0_bus_J:0" type="pt_bus" depart="15.00" departLane="0" arrival="206.00">
        <route edges="645336418 580342766#1 448565810 39497550"/>
        <stop busStop="473127692" duration="30.00"/>
    </vehicle>

    <vehicle id="3_bus_J:3" type="pt_bus" depart="52.00" departLane="0" arrival="217.00">
        <route edges="39497550 604115940 448565811#0 24707236"/>
        <stop busStop="473127692" duration="30.00"/>
    </vehicle>

    <vehicle id="5_bus_70:0" type="pt_bus" depart="131.00" departLane="0" arrival="228.00">
        <route edges="608749309#1"/>
        <stop busStop="10962974173" duration="30.00"/>
    </vehicle>

    <vehicle id="1_bus_J:1" type="pt_bus" depart="21.00" departLane="0" arrival="244.00">
        <route edges="645336418 580342766#1 448565810 39497550"/>
        <stop busStop="473127692" duration="30.00"/>
    </vehicle>

    <vehicle id="6_bus_577:0" type="pt_bus" depart="132.00" departLane="0" arrival="296.00">
        <route edges="608749309#0"/>
        <stop busStop="6919713540" duration="30.00"/>
    </vehicle>

    <vehicle id="8_bus_194:0" type="pt_bus" depart="165.00" departLane="0" arrival="341.00">
        <route edges="608749309#0"/>
        <stop busStop="10962974169" duration="30.00"/>
    </vehicle>

    <vehicle id="12_bus_282:0" type="pt_bus" depart="353.00" departLane="0" arrival="422.00">
        <route edges="608749309#1"/>
        <stop busStop="5766831104" duration="30.00"/>
    </vehicle>

    <vehicle id="10_bus_178:0" type="pt_bus" depart="303.00" departLane="0" arrival="464.00">
        <route edges="608749309#0"/>
        <stop busStop="10962974170" duration="30.00"/>
    </vehicle>

    <vehicle id="15_bus_492:0" type="pt_bus" depart="406.00" departLane="0" arrival="487.00">
        <route edges="604115947"/>
        <stop busStop="6206425481" duration="30.00"/>
    </vehicle>

    <vehicle id="11_bus_707:0" type="pt_bus" depart="326.00" departLane="0" arrival="493.00">
        <route edges="39497550"/>
        <stop busStop="6206425479" duration="30.00"/>
        <stop busStop="6206425478" duration="30.00"/>
        <stop busStop="6206425477" duration="30.00"/>
    </vehicle>

    <vehicle id="13_bus_270:0" type="pt_bus" depart="383.00" departLane="0" arrival="543.00">
        <route edges="608749309#0"/>
        <stop busStop="5766831115" duration="30.00"/>
    </vehicle>

    <vehicle id="14_bus_269:0" type="pt_bus" depart="390.00" departLane="0" arrival="581.00">
        <route edges="608749309#0"/>
        <stop busStop="10962974171" duration="30.00"/>
    </vehicle>

    <vehicle id="17_bus_486:0" type="pt_bus" depart="535.00" departLane="0" arrival="616.00">
        <route edges="604115947"/>
        <stop busStop="6206425483" duration="30.00"/>
    </vehicle>

    <vehicle id="7_bus_7:0" type="pt_bus" depart="139.00" departLane="0" arrival="693.00">
        <route edges="608749309#0 608749309#1 -604115944 -39497560#2 -39497560#1 -39497560#0 401279508 401279518 401280477#0 401280477#1 401280477#2 401280472 401280473 401280476 401280471 844266946 401280482 401280481 401280479#0 401280479#2 719920981 719920980 401280480#0 401280480#1 401280480#2 405492972 405492989 1002506672 405492967 405492978#0 405492978#1 -405492978#1 -405492978#0 -405492967 405492967 405492978#0 405492978#1 405492994 13330404#0 13330404#1 976576366#0 976576366#1 976576367#0"/>
        <stop busStop="10962974178" duration="30.00"/>
        <stop busStop="-4231956397" duration="30.00"/>
        <stop busStop="4231972191" duration="30.00"/>
        <stop busStop="4234987294" duration="30.00"/>
    </vehicle>

    <vehicle id="9_bus_190:0" type="pt_bus" depart="253.00" departLane="0" arrival="768.00">
        <route edges="608749309#0 608749309#1 -604115944 -39497560#2 -39497560#1 -39497560#0 401279508 401279518 401280477#0 401280477#1 401280477#2 401280472 401280473 401280476 401280471 844266946 401280482 401280481 401280479#0 401280479#2 719920981 719920980 401280480#0 401280480#1 401280480#2 405492972 405492989 1002506672 405492967 405492978#0 405492978#1 405492994 13330404#0 13330404#1 976576366#0 976576366#1 976576367#0 405497704#0 687300872 405497708 45481513"/>
        <stop busStop="10962974168" duration="30.00"/>
        <stop busStop="4231956397" duration="30.00"/>
        <stop busStop="4231972191@8452978" duration="30.00"/>
    </vehicle>

    <vehicle id="16_bus_488:0" type="pt_bus" depart="441.00" departLane="0" arrival="1019.00">
        <route edges="604115947 39497550 604115940 448565811#0 580342766#1 -448565809 -1365889296 -39497566 401280477#0 401280477#1 401280477#2 401280472 401280473 401280476 401280471 844266946 401280482 401280481 401280479#0 401280479#2 719920981 719920980 401280480#0 401280480#1 401280480#2 405492972 405492989 1002506672 405492967 405492978#0 405492978#1 405492994 13330404#0 13330404#1 976576366#0 976576366#1 976576367#0 405497704#0 687300872 1026947678 1026947679#0 405497704#0 687300872 405497708 45481513 844176767 405497700 -405497700 -844176767 -45481513 -405497708"/>
        <stop busStop="6206425482" duration="30.00"/>
        <stop busStop="4231990389" duration="30.00"/>
    </vehicle>

</routes>
